    1
i =        0, time =        0.000, E =        -0.0011083101
   Cl       0.0000000000       0.0000000000       0.0000000000
