    2
i =        0, time =        0.000, E =        -1.2139414699
   Cl       3.2116144774      -2.6121820730      -3.1022338091
   Cl      -3.2116144774       2.6121820730       3.1022338091
