    2
i =        0, time =        0.000, E =        -0.0743269980
   Cl       0.0910517648       0.0289569366      -0.0041041620
   Cl      -0.0910517648      -0.0289569366       0.0041041620
