    2
i =        0, time =        0.000, E =        -1.0629860419
   Cl       1.6799599929       0.0000000000       0.0000000000
   Cl      -1.6799599929       0.0000000000       0.0000000000
