    2
i =        0, time =        0.000, E =        -0.5303019981
   Na       0.2788206209       0.0000000000      -0.0000000000
   Cl      -0.2788206209       0.0000000000       0.0000000000
